t 0.000266666 /NodeList/46/DeviceList/0/$ns3::WifiNetDevice/Phy/State/Tx OfdmRate6Mbps ns3::WifiMacHeader (DATA ToDS=0, FromDS=0, MoreFrag=0, Retry=0, MoreData=0 Duration/ID=0us, DA=ff:ff:ff:ff:ff:ff, SA=00:00:00:00:00:2f, BSSID=00:00:00:00:00:2f, FragNumber=0, SeqNumber=0) ns3::LlcSnapHeader (type 0x806) ns3::ArpHeader (request source mac: 00-06-00:00:00:00:00:2f source ipv4: 10.0.0.47 dest ipv4: 10.0.0.38) ns3::WifiMacTrailer ()
r 0.000378766 OfdmRate6Mbps/NodeList/36/DeviceList/0/$ns3::WifiNetDevice/Phy/State/RxOk ns3::WifiMacHeader (DATA ToDS=0, FromDS=0, MoreFrag=0, Retry=0, MoreData=0 Duration/ID=0us, DA=ff:ff:ff:ff:ff:ff, SA=00:00:00:00:00:2f, BSSID=00:00:00:00:00:2f, FragNumber=0, SeqNumber=0) ns3::LlcSnapHeader (type 0x806) ns3::ArpHeader (request source mac: 00-06-00:00:00:00:00:2f source ipv4: 10.0.0.47 dest ipv4: 10.0.0.38) ns3::WifiMacTrailer ()
r 0.000378766 OfdmRate6Mbps/NodeList/45/DeviceList/0/$ns3::WifiNetDevice/Phy/State/RxOk ns3::WifiMacHeader (DATA ToDS=0, FromDS=0, MoreFrag=0, Retry=0, MoreData=0 Duration/ID=0us, DA=ff:ff:ff:ff:ff:ff, SA=00:00:00:00:00:2f, BSSID=00:00:00:00:00:2f, FragNumber=0, SeqNumber=0) ns3::LlcSnapHeader (type 0x806) ns3::ArpHeader (request source mac: 00-06-00:00:00:00:00:2f source ipv4: 10.0.0.47 dest ipv4: 10.0.0.38) ns3::WifiMacTrailer ()
r 0.000378766 OfdmRate6Mbps/NodeList/47/DeviceList/0/$ns3::WifiNetDevice/Phy/State/RxOk ns3::WifiMacHeader (DATA ToDS=0, FromDS=0, MoreFrag=0, Retry=0, MoreData=0 Duration/ID=0us, DA=ff:ff:ff:ff:ff:ff, SA=00:00:00:00:00:2f, BSSID=00:00:00:00:00:2f, FragNumber=0, SeqNumber=0) ns3::LlcSnapHeader (type 0x806) ns3::ArpHeader (request source mac: 00-06-00:00:00:00:00:2f source ipv4: 10.0.0.47 dest ipv4: 10.0.0.38) ns3::WifiMacTrailer ()
r 0.000378766 OfdmRate6Mbps/NodeList/56/DeviceList/0/$ns3::WifiNetDevice/Phy/State/RxOk ns3::WifiMacHeader (DATA ToDS=0, FromDS=0, MoreFrag=0, Retry=0, MoreData=0 Duration/ID=0us, DA=ff:ff:ff:ff:ff:ff, SA=00:00:00:00:00:2f, BSSID=00:00:00:00:00:2f, FragNumber=0, SeqNumber=0) ns3::LlcSnapHeader (type 0x806) ns3::ArpHeader (request source mac: 00-06-00:00:00:00:00:2f source ipv4: 10.0.0.47 dest ipv4: 10.0.0.38) ns3::WifiMacTrailer ()
r 0.000378807 OfdmRate6Mbps/NodeList/35/DeviceList/0/$ns3::WifiNetDevice/Phy/State/RxOk ns3::WifiMacHeader (DATA ToDS=0, FromDS=0, MoreFrag=0, Retry=0, MoreData=0 Duration/ID=0us, DA=ff:ff:ff:ff:ff:ff, SA=00:00:00:00:00:2f, BSSID=00:00:00:00:00:2f, FragNumber=0, SeqNumber=0) ns3::LlcSnapHeader (type 0x806) ns3::ArpHeader (request source mac: 00-06-00:00:00:00:00:2f source ipv4: 10.0.0.47 dest ipv4: 10.0.0.38) ns3::WifiMacTrailer ()
r 0.000378807 OfdmRate6Mbps/NodeList/37/DeviceList/0/$ns3::WifiNetDevice/Phy/State/RxOk ns3::WifiMacHeader (DATA ToDS=0, FromDS=0, MoreFrag=0, Retry=0, MoreData=0 Duration/ID=0us, DA=ff:ff:ff:ff:ff:ff, SA=00:00:00:00:00:2f, BSSID=00:00:00:00:00:2f, FragNumber=0, SeqNumber=0) ns3::LlcSnapHeader (type 0x806) ns3::ArpHeader (request source mac: 00-06-00:00:00:00:00:2f source ipv4: 10.0.0.47 dest ipv4: 10.0.0.38) ns3::WifiMacTrailer ()
r 0.000378807 OfdmRate6Mbps/NodeList/55/DeviceList/0/$ns3::WifiNetDevice/Phy/State/RxOk ns3::WifiMacHeader (DATA ToDS=0, FromDS=0, MoreFrag=0, Retry=0, MoreData=0 Duration/ID=0us, DA=ff:ff:ff:ff:ff:ff, SA=00:00:00:00:00:2f, BSSID=00:00:00:00:00:2f, FragNumber=0, SeqNumber=0) ns3::LlcSnapHeader (type 0x806) ns3::ArpHeader (request source mac: 00-06-00:00:00:00:00:2f source ipv4: 10.0.0.47 dest ipv4: 10.0.0.38) ns3::WifiMacTrailer ()
r 0.000378807 OfdmRate6Mbps/NodeList/57/DeviceList/0/$ns3::WifiNetDevice/Phy/State/RxOk ns3::WifiMacHeader (DATA ToDS=0, FromDS=0, MoreFrag=0, Retry=0, MoreData=0 Duration/ID=0us, DA=ff:ff:ff:ff:ff:ff, SA=00:00:00:00:00:2f, BSSID=00:00:00:00:00:2f, FragNumber=0, SeqNumber=0) ns3::LlcSnapHeader (type 0x806) ns3::ArpHeader (request source mac: 00-06-00:00:00:00:00:2f source ipv4: 10.0.0.47 dest ipv4: 10.0.0.38) ns3::WifiMacTrailer ()
r 0.000378866 OfdmRate6Mbps/NodeList/26/DeviceList/0/$ns3::WifiNetDevice/Phy/State/RxOk ns3::WifiMacHeader (DATA ToDS=0, FromDS=0, MoreFrag=0, Retry=0, MoreData=0 Duration/ID=0us, DA=ff:ff:ff:ff:ff:ff, SA=00:00:00:00:00:2f, BSSID=00:00:00:00:00:2f, FragNumber=0, SeqNumber=0) ns3::LlcSnapHeader (type 0x806) ns3::ArpHeader (request source mac: 00-06-00:00:00:00:00:2f source ipv4: 10.0.0.47 dest ipv4: 10.0.0.38) ns3::WifiMacTrailer ()
r 0.000378866 OfdmRate6Mbps/NodeList/44/DeviceList/0/$ns3::WifiNetDevice/Phy/State/RxOk ns3::WifiMacHeader (DATA ToDS=0, FromDS=0, MoreFrag=0, Retry=0, MoreData=0 Duration/ID=0us, DA=ff:ff:ff:ff:ff:ff, SA=00:00:00:00:00:2f, BSSID=00:00:00:00:00:2f, FragNumber=0, SeqNumber=0) ns3::LlcSnapHeader (type 0x806) ns3::ArpHeader (request source mac: 00-06-00:00:00:00:00:2f source ipv4: 10.0.0.47 dest ipv4: 10.0.0.38) ns3::WifiMacTrailer ()
r 0.000378866 OfdmRate6Mbps/NodeList/48/DeviceList/0/$ns3::WifiNetDevice/Phy/State/RxOk ns3::WifiMacHeader (DATA ToDS=0, FromDS=0, MoreFrag=0, Retry=0, MoreData=0 Duration/ID=0us, DA=ff:ff:ff:ff:ff:ff, SA=00:00:00:00:00:2f, BSSID=00:00:00:00:00:2f, FragNumber=0, SeqNumber=0) ns3::LlcSnapHeader (type 0x806) ns3::ArpHeader (request source mac: 00-06-00:00:00:00:00:2f source ipv4: 10.0.0.47 dest ipv4: 10.0.0.38) ns3::WifiMacTrailer ()
r 0.000378866 OfdmRate6Mbps/NodeList/66/DeviceList/0/$ns3::WifiNetDevice/Phy/State/RxOk ns3::WifiMacHeader (DATA ToDS=0, FromDS=0, MoreFrag=0, Retry=0, MoreData=0 Duration/ID=0us, DA=ff:ff:ff:ff:ff:ff, SA=00:00:00:00:00:2f, BSSID=00:00:00:00:00:2f, FragNumber=0, SeqNumber=0) ns3::LlcSnapHeader (type 0x806) ns3::ArpHeader (request source mac: 00-06-00:00:00:00:00:2f source ipv4: 10.0.0.47 dest ipv4: 10.0.0.38) ns3::WifiMacTrailer ()
r 0.000378889 OfdmRate6Mbps/NodeList/25/DeviceList/0/$ns3::WifiNetDevice/Phy/State/RxOk ns3::WifiMacHeader (DATA ToDS=0, FromDS=0, MoreFrag=0, Retry=0, MoreData=0 Duration/ID=0us, DA=ff:ff:ff:ff:ff:ff, SA=00:00:00:00:00:2f, BSSID=00:00:00:00:00:2f, FragNumber=0, SeqNumber=0) ns3::LlcSnapHeader (type 0x806) ns3::ArpHeader (request source mac: 00-06-00:00:00:00:00:2f source ipv4: 10.0.0.47 dest ipv4: 10.0.0.38) ns3::WifiMacTrailer ()
r 0.000378889 OfdmRate6Mbps/NodeList/27/DeviceList/0/$ns3::WifiNetDevice/Phy/State/RxOk ns3::WifiMacHeader (DATA ToDS=0, FromDS=0, MoreFrag=0, Retry=0, MoreData=0 Duration/ID=0us, DA=ff:ff:ff:ff:ff:ff, SA=00:00:00:00:00:2f, BSSID=00:00:00:00:00:2f, FragNumber=0, SeqNumber=0) ns3::LlcSnapHeader (type 0x806) ns3::ArpHeader (request source mac: 00-06-00:00:00:00:00:2f source ipv4: 10.0.0.47 dest ipv4: 10.0.0.38) ns3::WifiMacTrailer ()
r 0.000378889 OfdmRate6Mbps/NodeList/34/DeviceList/0/$ns3::WifiNetDevice/Phy/State/RxOk ns3::WifiMacHeader (DATA ToDS=0, FromDS=0, MoreFrag=0, Retry=0, MoreData=0 Duration/ID=0us, DA=ff:ff:ff:ff:ff:ff, SA=00:00:00:00:00:2f, BSSID=00:00:00:00:00:2f, FragNumber=0, SeqNumber=0) ns3::LlcSnapHeader (type 0x806) ns3::ArpHeader (request source mac: 00-06-00:00:00:00:00:2f source ipv4: 10.0.0.47 dest ipv4: 10.0.0.38) ns3::WifiMacTrailer ()
r 0.000378889 OfdmRate6Mbps/NodeList/38/DeviceList/0/$ns3::WifiNetDevice/Phy/State/RxOk ns3::WifiMacHeader (DATA ToDS=0, FromDS=0, MoreFrag=0, Retry=0, MoreData=0 Duration/ID=0us, DA=ff:ff:ff:ff:ff:ff, SA=00:00:00:00:00:2f, BSSID=00:00:00:00:00:2f, FragNumber=0, SeqNumber=0) ns3::LlcSnapHeader (type 0x806) ns3::ArpHeader (request source mac: 00-06-00:00:00:00:00:2f source ipv4: 10.0.0.47 dest ipv4: 10.0.0.38) ns3::WifiMacTrailer ()
r 0.000378889 OfdmRate6Mbps/NodeList/54/DeviceList/0/$ns3::WifiNetDevice/Phy/State/RxOk ns3::WifiMacHeader (DATA ToDS=0, FromDS=0, MoreFrag=0, Retry=0, MoreData=0 Duration/ID=0us, DA=ff:ff:ff:ff:ff:ff, SA=00:00:00:00:00:2f, BSSID=00:00:00:00:00:2f, FragNumber=0, SeqNumber=0) ns3::LlcSnapHeader (type 0x806) ns3::ArpHeader (request source mac: 00-06-00:00:00:00:00:2f source ipv4: 10.0.0.47 dest ipv4: 10.0.0.38) ns3::WifiMacTrailer ()
r 0.000378889 OfdmRate6Mbps/NodeList/58/DeviceList/0/$ns3::WifiNetDevice/Phy/State/RxOk ns3::WifiMacHeader (DATA ToDS=0, FromDS=0, MoreFrag=0, Retry=0, MoreData=0 Duration/ID=0us, DA=ff:ff:ff:ff:ff:ff, SA=00:00:00:00:00:2f, BSSID=00:00:00:00:00:2f, FragNumber=0, SeqNumber=0) ns3::LlcSnapHeader (type 0x806) ns3::ArpHeader (request source mac: 00-06-00:00:00:00:00:2f source ipv4: 10.0.0.47 dest ipv4: 10.0.0.38) ns3::WifiMacTrailer ()
r 0.000378889 OfdmRate6Mbps/NodeList/65/DeviceList/0/$ns3::WifiNetDevice/Phy/State/RxOk ns3::WifiMacHeader (DATA ToDS=0, FromDS=0, MoreFrag=0, Retry=0, MoreData=0 Duration/ID=0us, DA=ff:ff:ff:ff:ff:ff, SA=00:00:00:00:00:2f, BSSID=00:00:00:00:00:2f, FragNumber=0, SeqNumber=0) ns3::LlcSnapHeader (type 0x806) ns3::ArpHeader (request source mac: 00-06-00:00:00:00:00:2f source ipv4: 10.0.0.47 dest ipv4: 10.0.0.38) ns3::WifiMacTrailer ()
r 0.000378889 OfdmRate6Mbps/NodeList/67/DeviceList/0/$ns3::WifiNetDevice/Phy/State/RxOk ns3::WifiMacHeader (DATA ToDS=0, FromDS=0, MoreFrag=0, Retry=0, MoreData=0 Duration/ID=0us, DA=ff:ff:ff:ff:ff:ff, SA=00:00:00:00:00:2f, BSSID=00:00:00:00:00:2f, FragNumber=0, SeqNumber=0) ns3::LlcSnapHeader (type 0x806) ns3::ArpHeader (request source mac: 00-06-00:00:00:00:00:2f source ipv4: 10.0.0.47 dest ipv4: 10.0.0.38) ns3::WifiMacTrailer ()
r 0.000378949 OfdmRate6Mbps/NodeList/24/DeviceList/0/$ns3::WifiNetDevice/Phy/State/RxOk ns3::WifiMacHeader (DATA ToDS=0, FromDS=0, MoreFrag=0, Retry=0, MoreData=0 Duration/ID=0us, DA=ff:ff:ff:ff:ff:ff, SA=00:00:00:00:00:2f, BSSID=00:00:00:00:00:2f, FragNumber=0, SeqNumber=0) ns3::LlcSnapHeader (type 0x806) ns3::ArpHeader (request source mac: 00-06-00:00:00:00:00:2f source ipv4: 10.0.0.47 dest ipv4: 10.0.0.38) ns3::WifiMacTrailer ()
r 0.000378949 OfdmRate6Mbps/NodeList/28/DeviceList/0/$ns3::WifiNetDevice/Phy/State/RxOk ns3::WifiMacHeader (DATA ToDS=0, FromDS=0, MoreFrag=0, Retry=0, MoreData=0 Duration/ID=0us, DA=ff:ff:ff:ff:ff:ff, SA=00:00:00:00:00:2f, BSSID=00:00:00:00:00:2f, FragNumber=0, SeqNumber=0) ns3::LlcSnapHeader (type 0x806) ns3::ArpHeader (request source mac: 00-06-00:00:00:00:00:2f source ipv4: 10.0.0.47 dest ipv4: 10.0.0.38) ns3::WifiMacTrailer ()
r 0.000378949 OfdmRate6Mbps/NodeList/64/DeviceList/0/$ns3::WifiNetDevice/Phy/State/RxOk ns3::WifiMacHeader (DATA ToDS=0, FromDS=0, MoreFrag=0, Retry=0, MoreData=0 Duration/ID=0us, DA=ff:ff:ff:ff:ff:ff, SA=00:00:00:00:00:2f, BSSID=00:00:00:00:00:2f, FragNumber=0, SeqNumber=0) ns3::LlcSnapHeader (type 0x806) ns3::ArpHeader (request source mac: 00-06-00:00:00:00:00:2f source ipv4: 10.0.0.47 dest ipv4: 10.0.0.38) ns3::WifiMacTrailer ()
r 0.000378949 OfdmRate6Mbps/NodeList/68/DeviceList/0/$ns3::WifiNetDevice/Phy/State/RxOk ns3::WifiMacHeader (DATA ToDS=0, FromDS=0, MoreFrag=0, Retry=0, MoreData=0 Duration/ID=0us, DA=ff:ff:ff:ff:ff:ff, SA=00:00:00:00:00:2f, BSSID=00:00:00:00:00:2f, FragNumber=0, SeqNumber=0) ns3::LlcSnapHeader (type 0x806) ns3::ArpHeader (request source mac: 00-06-00:00:00:00:00:2f source ipv4: 10.0.0.47 dest ipv4: 10.0.0.38) ns3::WifiMacTrailer ()
r 0.000378966 OfdmRate6Mbps/NodeList/16/DeviceList/0/$ns3::WifiNetDevice/Phy/State/RxOk ns3::WifiMacHeader (DATA ToDS=0, FromDS=0, MoreFrag=0, Retry=0, MoreData=0 Duration/ID=0us, DA=ff:ff:ff:ff:ff:ff, SA=00:00:00:00:00:2f, BSSID=00:00:00:00:00:2f, FragNumber=0, SeqNumber=0) ns3::LlcSnapHeader (type 0x806) ns3::ArpHeader (request source mac: 00-06-00:00:00:00:00:2f source ipv4: 10.0.0.47 dest ipv4: 10.0.0.38) ns3::WifiMacTrailer ()
r 0.000378966 OfdmRate6Mbps/NodeList/43/DeviceList/0/$ns3::WifiNetDevice/Phy/State/RxOk ns3::WifiMacHeader (DATA ToDS=0, FromDS=0, MoreFrag=0, Retry=0, MoreData=0 Duration/ID=0us, DA=ff:ff:ff:ff:ff:ff, SA=00:00:00:00:00:2f, BSSID=00:00:00:00:00:2f, FragNumber=0, SeqNumber=0) ns3::LlcSnapHeader (type 0x806) ns3::ArpHeader (request source mac: 00-06-00:00:00:00:00:2f source ipv4: 10.0.0.47 dest ipv4: 10.0.0.38) ns3::WifiMacTrailer ()
r 0.000378966 OfdmRate6Mbps/NodeList/49/DeviceList/0/$ns3::WifiNetDevice/Phy/State/RxOk ns3::WifiMacHeader (DATA ToDS=0, FromDS=0, MoreFrag=0, Retry=0, MoreData=0 Duration/ID=0us, DA=ff:ff:ff:ff:ff:ff, SA=00:00:00:00:00:2f, BSSID=00:00:00:00:00:2f, FragNumber=0, SeqNumber=0) ns3::LlcSnapHeader (type 0x806) ns3::ArpHeader (request source mac: 00-06-00:00:00:00:00:2f source ipv4: 10.0.0.47 dest ipv4: 10.0.0.38) ns3::WifiMacTrailer ()
r 0.000378966 OfdmRate6Mbps/NodeList/76/DeviceList/0/$ns3::WifiNetDevice/Phy/State/RxOk ns3::WifiMacHeader (DATA ToDS=0, FromDS=0, MoreFrag=0, Retry=0, MoreData=0 Duration/ID=0us, DA=ff:ff:ff:ff:ff:ff, SA=00:00:00:00:00:2f, BSSID=00:00:00:00:00:2f, FragNumber=0, SeqNumber=0) ns3::LlcSnapHeader (type 0x806) ns3::ArpHeader (request source mac: 00-06-00:00:00:00:00:2f source ipv4: 10.0.0.47 dest ipv4: 10.0.0.38) ns3::WifiMacTrailer ()
r 0.000378982 OfdmRate6Mbps/NodeList/15/DeviceList/0/$ns3::WifiNetDevice/Phy/State/RxOk ns3::WifiMacHeader (DATA ToDS=0, FromDS=0, MoreFrag=0, Retry=0, MoreData=0 Duration/ID=0us, DA=ff:ff:ff:ff:ff:ff, SA=00:00:00:00:00:2f, BSSID=00:00:00:00:00:2f, FragNumber=0, SeqNumber=0) ns3::LlcSnapHeader (type 0x806) ns3::ArpHeader (request source mac: 00-06-00:00:00:00:00:2f source ipv4: 10.0.0.47 dest ipv4: 10.0.0.38) ns3::WifiMacTrailer ()
r 0.000378982 OfdmRate6Mbps/NodeList/17/DeviceList/0/$ns3::WifiNetDevice/Phy/State/RxOk ns3::WifiMacHeader (DATA ToDS=0, FromDS=0, MoreFrag=0, Retry=0, MoreData=0 Duration/ID=0us, DA=ff:ff:ff:ff:ff:ff, SA=00:00:00:00:00:2f, BSSID=00:00:00:00:00:2f, FragNumber=0, SeqNumber=0) ns3::LlcSnapHeader (type 0x806) ns3::ArpHeader (request source mac: 00-06-00:00:00:00:00:2f source ipv4: 10.0.0.47 dest ipv4: 10.0.0.38) ns3::WifiMacTrailer ()
r 0.000378982 OfdmRate6Mbps/NodeList/33/DeviceList/0/$ns3::WifiNetDevice/Phy/State/RxOk ns3::WifiMacHeader (DATA ToDS=0, FromDS=0, MoreFrag=0, Retry=0, MoreData=0 Duration/ID=0us, DA=ff:ff:ff:ff:ff:ff, SA=00:00:00:00:00:2f, BSSID=00:00:00:00:00:2f, FragNumber=0, SeqNumber=0) ns3::LlcSnapHeader (type 0x806) ns3::ArpHeader (request source mac: 00-06-00:00:00:00:00:2f source ipv4: 10.0.0.47 dest ipv4: 10.0.0.38) ns3::WifiMacTrailer ()
r 0.000378982 OfdmRate6Mbps/NodeList/39/DeviceList/0/$ns3::WifiNetDevice/Phy/State/RxOk ns3::WifiMacHeader (DATA ToDS=0, FromDS=0, MoreFrag=0, Retry=0, MoreData=0 Duration/ID=0us, DA=ff:ff:ff:ff:ff:ff, SA=00:00:00:00:00:2f, BSSID=00:00:00:00:00:2f, FragNumber=0, SeqNumber=0) ns3::LlcSnapHeader (type 0x806) ns3::ArpHeader (request source mac: 00-06-00:00:00:00:00:2f source ipv4: 10.0.0.47 dest ipv4: 10.0.0.38) ns3::WifiMacTrailer ()
r 0.000378982 OfdmRate6Mbps/NodeList/53/DeviceList/0/$ns3::WifiNetDevice/Phy/State/RxOk ns3::WifiMacHeader (DATA ToDS=0, FromDS=0, MoreFrag=0, Retry=0, MoreData=0 Duration/ID=0us, DA=ff:ff:ff:ff:ff:ff, SA=00:00:00:00:00:2f, BSSID=00:00:00:00:00:2f, FragNumber=0, SeqNumber=0) ns3::LlcSnapHeader (type 0x806) ns3::ArpHeader (request source mac: 00-06-00:00:00:00:00:2f source ipv4: 10.0.0.47 dest ipv4: 10.0.0.38) ns3::WifiMacTrailer ()
r 0.000378982 OfdmRate6Mbps/NodeList/59/DeviceList/0/$ns3::WifiNetDevice/Phy/State/RxOk ns3::WifiMacHeader (DATA ToDS=0, FromDS=0, MoreFrag=0, Retry=0, MoreData=0 Duration/ID=0us, DA=ff:ff:ff:ff:ff:ff, SA=00:00:00:00:00:2f, BSSID=00:00:00:00:00:2f, FragNumber=0, SeqNumber=0) ns3::LlcSnapHeader (type 0x806) ns3::ArpHeader (request source mac: 00-06-00:00:00:00:00:2f source ipv4: 10.0.0.47 dest ipv4: 10.0.0.38) ns3::WifiMacTrailer ()
r 0.000378982 OfdmRate6Mbps/NodeList/75/DeviceList/0/$ns3::WifiNetDevice/Phy/State/RxOk ns3::WifiMacHeader (DATA ToDS=0, FromDS=0, MoreFrag=0, Retry=0, MoreData=0 Duration/ID=0us, DA=ff:ff:ff:ff:ff:ff, SA=00:00:00:00:00:2f, BSSID=00:00:00:00:00:2f, FragNumber=0, SeqNumber=0) ns3::LlcSnapHeader (type 0x806) ns3::ArpHeader (request source mac: 00-06-00:00:00:00:00:2f source ipv4: 10.0.0.47 dest ipv4: 10.0.0.38) ns3::WifiMacTrailer ()
r 0.000378982 OfdmRate6Mbps/NodeList/77/DeviceList/0/$ns3::WifiNetDevice/Phy/State/RxOk ns3::WifiMacHeader (DATA ToDS=0, FromDS=0, MoreFrag=0, Retry=0, MoreData=0 Duration/ID=0us, DA=ff:ff:ff:ff:ff:ff, SA=00:00:00:00:00:2f, BSSID=00:00:00:00:00:2f, FragNumber=0, SeqNumber=0) ns3::LlcSnapHeader (type 0x806) ns3::ArpHeader (request source mac: 00-06-00:00:00:00:00:2f source ipv4: 10.0.0.47 dest ipv4: 10.0.0.38) ns3::WifiMacTrailer ()
t 0.000475807 /NodeList/37/DeviceList/0/$ns3::WifiNetDevice/Phy/State/Tx OfdmRate6Mbps ns3::WifiMacHeader (DATA ToDS=0, FromDS=0, MoreFrag=0, Retry=0, MoreData=0 Duration/ID=60us, DA=00:00:00:00:00:2f, SA=00:00:00:00:00:26, BSSID=00:00:00:00:00:26, FragNumber=0, SeqNumber=0) ns3::LlcSnapHeader (type 0x806) ns3::ArpHeader (reply source mac: 00-06-00:00:00:00:00:26 source ipv4: 10.0.0.38 dest mac: 00-06-00:00:00:00:00:2f dest ipv4: 10.0.0.47) ns3::WifiMacTrailer ()
r 0.000587907 OfdmRate6Mbps/NodeList/27/DeviceList/0/$ns3::WifiNetDevice/Phy/State/RxOk ns3::WifiMacHeader (DATA ToDS=0, FromDS=0, MoreFrag=0, Retry=0, MoreData=0 Duration/ID=60us, DA=00:00:00:00:00:2f, SA=00:00:00:00:00:26, BSSID=00:00:00:00:00:26, FragNumber=0, SeqNumber=0) ns3::LlcSnapHeader (type 0x806) ns3::ArpHeader (reply source mac: 00-06-00:00:00:00:00:26 source ipv4: 10.0.0.38 dest mac: 00-06-00:00:00:00:00:2f dest ipv4: 10.0.0.47) ns3::WifiMacTrailer ()
r 0.000587907 OfdmRate6Mbps/NodeList/36/DeviceList/0/$ns3::WifiNetDevice/Phy/State/RxOk ns3::WifiMacHeader (DATA ToDS=0, FromDS=0, MoreFrag=0, Retry=0, MoreData=0 Duration/ID=60us, DA=00:00:00:00:00:2f, SA=00:00:00:00:00:26, BSSID=00:00:00:00:00:26, FragNumber=0, SeqNumber=0) ns3::LlcSnapHeader (type 0x806) ns3::ArpHeader (reply source mac: 00-06-00:00:00:00:00:26 source ipv4: 10.0.0.38 dest mac: 00-06-00:00:00:00:00:2f dest ipv4: 10.0.0.47) ns3::WifiMacTrailer ()
r 0.000587907 OfdmRate6Mbps/NodeList/38/DeviceList/0/$ns3::WifiNetDevice/Phy/State/RxOk ns3::WifiMacHeader (DATA ToDS=0, FromDS=0, MoreFrag=0, Retry=0, MoreData=0 Duration/ID=60us, DA=00:00:00:00:00:2f, SA=00:00:00:00:00:26, BSSID=00:00:00:00:00:26, FragNumber=0, SeqNumber=0) ns3::LlcSnapHeader (type 0x806) ns3::ArpHeader (reply source mac: 00-06-00:00:00:00:00:26 source ipv4: 10.0.0.38 dest mac: 00-06-00:00:00:00:00:2f dest ipv4: 10.0.0.47) ns3::WifiMacTrailer ()
r 0.000587907 OfdmRate6Mbps/NodeList/47/DeviceList/0/$ns3::WifiNetDevice/Phy/State/RxOk ns3::WifiMacHeader (DATA ToDS=0, FromDS=0, MoreFrag=0, Retry=0, MoreData=0 Duration/ID=60us, DA=00:00:00:00:00:2f, SA=00:00:00:00:00:26, BSSID=00:00:00:00:00:26, FragNumber=0, SeqNumber=0) ns3::LlcSnapHeader (type 0x806) ns3::ArpHeader (reply source mac: 00-06-00:00:00:00:00:26 source ipv4: 10.0.0.38 dest mac: 00-06-00:00:00:00:00:2f dest ipv4: 10.0.0.47) ns3::WifiMacTrailer ()
r 0.000587948 OfdmRate6Mbps/NodeList/26/DeviceList/0/$ns3::WifiNetDevice/Phy/State/RxOk ns3::WifiMacHeader (DATA ToDS=0, FromDS=0, MoreFrag=0, Retry=0, MoreData=0 Duration/ID=60us, DA=00:00:00:00:00:2f, SA=00:00:00:00:00:26, BSSID=00:00:00:00:00:26, FragNumber=0, SeqNumber=0) ns3::LlcSnapHeader (type 0x806) ns3::ArpHeader (reply source mac: 00-06-00:00:00:00:00:26 source ipv4: 10.0.0.38 dest mac: 00-06-00:00:00:00:00:2f dest ipv4: 10.0.0.47) ns3::WifiMacTrailer ()
r 0.000587948 OfdmRate6Mbps/NodeList/28/DeviceList/0/$ns3::WifiNetDevice/Phy/State/RxOk ns3::WifiMacHeader (DATA ToDS=0, FromDS=0, MoreFrag=0, Retry=0, MoreData=0 Duration/ID=60us, DA=00:00:00:00:00:2f, SA=00:00:00:00:00:26, BSSID=00:00:00:00:00:26, FragNumber=0, SeqNumber=0) ns3::LlcSnapHeader (type 0x806) ns3::ArpHeader (reply source mac: 00-06-00:00:00:00:00:26 source ipv4: 10.0.0.38 dest mac: 00-06-00:00:00:00:00:2f dest ipv4: 10.0.0.47) ns3::WifiMacTrailer ()
r 0.000587948 OfdmRate6Mbps/NodeList/46/DeviceList/0/$ns3::WifiNetDevice/Phy/State/RxOk ns3::WifiMacHeader (DATA ToDS=0, FromDS=0, MoreFrag=0, Retry=0, MoreData=0 Duration/ID=60us, DA=00:00:00:00:00:2f, SA=00:00:00:00:00:26, BSSID=00:00:00:00:00:26, FragNumber=0, SeqNumber=0) ns3::LlcSnapHeader (type 0x806) ns3::ArpHeader (reply source mac: 00-06-00:00:00:00:00:26 source ipv4: 10.0.0.38 dest mac: 00-06-00:00:00:00:00:2f dest ipv4: 10.0.0.47) ns3::WifiMacTrailer ()
r 0.000587948 OfdmRate6Mbps/NodeList/48/DeviceList/0/$ns3::WifiNetDevice/Phy/State/RxOk ns3::WifiMacHeader (DATA ToDS=0, FromDS=0, MoreFrag=0, Retry=0, MoreData=0 Duration/ID=60us, DA=00:00:00:00:00:2f, SA=00:00:00:00:00:26, BSSID=00:00:00:00:00:26, FragNumber=0, SeqNumber=0) ns3::LlcSnapHeader (type 0x806) ns3::ArpHeader (reply source mac: 00-06-00:00:00:00:00:26 source ipv4: 10.0.0.38 dest mac: 00-06-00:00:00:00:00:2f dest ipv4: 10.0.0.47) ns3::WifiMacTrailer ()
r 0.000588007 OfdmRate6Mbps/NodeList/17/DeviceList/0/$ns3::WifiNetDevice/Phy/State/RxOk ns3::WifiMacHeader (DATA ToDS=0, FromDS=0, MoreFrag=0, Retry=0, MoreData=0 Duration/ID=60us, DA=00:00:00:00:00:2f, SA=00:00:00:00:00:26, BSSID=00:00:00:00:00:26, FragNumber=0, SeqNumber=0) ns3::LlcSnapHeader (type 0x806) ns3::ArpHeader (reply source mac: 00-06-00:00:00:00:00:26 source ipv4: 10.0.0.38 dest mac: 00-06-00:00:00:00:00:2f dest ipv4: 10.0.0.47) ns3::WifiMacTrailer ()
r 0.000588007 OfdmRate6Mbps/NodeList/35/DeviceList/0/$ns3::WifiNetDevice/Phy/State/RxOk ns3::WifiMacHeader (DATA ToDS=0, FromDS=0, MoreFrag=0, Retry=0, MoreData=0 Duration/ID=60us, DA=00:00:00:00:00:2f, SA=00:00:00:00:00:26, BSSID=00:00:00:00:00:26, FragNumber=0, SeqNumber=0) ns3::LlcSnapHeader (type 0x806) ns3::ArpHeader (reply source mac: 00-06-00:00:00:00:00:26 source ipv4: 10.0.0.38 dest mac: 00-06-00:00:00:00:00:2f dest ipv4: 10.0.0.47) ns3::WifiMacTrailer ()
r 0.000588007 OfdmRate6Mbps/NodeList/39/DeviceList/0/$ns3::WifiNetDevice/Phy/State/RxOk ns3::WifiMacHeader (DATA ToDS=0, FromDS=0, MoreFrag=0, Retry=0, MoreData=0 Duration/ID=60us, DA=00:00:00:00:00:2f, SA=00:00:00:00:00:26, BSSID=00:00:00:00:00:26, FragNumber=0, SeqNumber=0) ns3::LlcSnapHeader (type 0x806) ns3::ArpHeader (reply source mac: 00-06-00:00:00:00:00:26 source ipv4: 10.0.0.38 dest mac: 00-06-00:00:00:00:00:2f dest ipv4: 10.0.0.47) ns3::WifiMacTrailer ()
r 0.000588007 OfdmRate6Mbps/NodeList/57/DeviceList/0/$ns3::WifiNetDevice/Phy/State/RxOk ns3::WifiMacHeader (DATA ToDS=0, FromDS=0, MoreFrag=0, Retry=0, MoreData=0 Duration/ID=60us, DA=00:00:00:00:00:2f, SA=00:00:00:00:00:26, BSSID=00:00:00:00:00:26, FragNumber=0, SeqNumber=0) ns3::LlcSnapHeader (type 0x806) ns3::ArpHeader (reply source mac: 00-06-00:00:00:00:00:26 source ipv4: 10.0.0.38 dest mac: 00-06-00:00:00:00:00:2f dest ipv4: 10.0.0.47) ns3::WifiMacTrailer ()
r 0.00058803 OfdmRate6Mbps/NodeList/16/DeviceList/0/$ns3::WifiNetDevice/Phy/State/RxOk ns3::WifiMacHeader (DATA ToDS=0, FromDS=0, MoreFrag=0, Retry=0, MoreData=0 Duration/ID=60us, DA=00:00:00:00:00:2f, SA=00:00:00:00:00:26, BSSID=00:00:00:00:00:26, FragNumber=0, SeqNumber=0) ns3::LlcSnapHeader (type 0x806) ns3::ArpHeader (reply source mac: 00-06-00:00:00:00:00:26 source ipv4: 10.0.0.38 dest mac: 00-06-00:00:00:00:00:2f dest ipv4: 10.0.0.47) ns3::WifiMacTrailer ()
r 0.00058803 OfdmRate6Mbps/NodeList/18/DeviceList/0/$ns3::WifiNetDevice/Phy/State/RxOk ns3::WifiMacHeader (DATA ToDS=0, FromDS=0, MoreFrag=0, Retry=0, MoreData=0 Duration/ID=60us, DA=00:00:00:00:00:2f, SA=00:00:00:00:00:26, BSSID=00:00:00:00:00:26, FragNumber=0, SeqNumber=0) ns3::LlcSnapHeader (type 0x806) ns3::ArpHeader (reply source mac: 00-06-00:00:00:00:00:26 source ipv4: 10.0.0.38 dest mac: 00-06-00:00:00:00:00:2f dest ipv4: 10.0.0.47) ns3::WifiMacTrailer ()
r 0.00058803 OfdmRate6Mbps/NodeList/25/DeviceList/0/$ns3::WifiNetDevice/Phy/State/RxOk ns3::WifiMacHeader (DATA ToDS=0, FromDS=0, MoreFrag=0, Retry=0, MoreData=0 Duration/ID=60us, DA=00:00:00:00:00:2f, SA=00:00:00:00:00:26, BSSID=00:00:00:00:00:26, FragNumber=0, SeqNumber=0) ns3::LlcSnapHeader (type 0x806) ns3::ArpHeader (reply source mac: 00-06-00:00:00:00:00:26 source ipv4: 10.0.0.38 dest mac: 00-06-00:00:00:00:00:2f dest ipv4: 10.0.0.47) ns3::WifiMacTrailer ()
r 0.00058803 OfdmRate6Mbps/NodeList/29/DeviceList/0/$ns3::WifiNetDevice/Phy/State/RxOk ns3::WifiMacHeader (DATA ToDS=0, FromDS=0, MoreFrag=0, Retry=0, MoreData=0 Duration/ID=60us, DA=00:00:00:00:00:2f, SA=00:00:00:00:00:26, BSSID=00:00:00:00:00:26, FragNumber=0, SeqNumber=0) ns3::LlcSnapHeader (type 0x806) ns3::ArpHeader (reply source mac: 00-06-00:00:00:00:00:26 source ipv4: 10.0.0.38 dest mac: 00-06-00:00:00:00:00:2f dest ipv4: 10.0.0.47) ns3::WifiMacTrailer ()
r 0.00058803 OfdmRate6Mbps/NodeList/45/DeviceList/0/$ns3::WifiNetDevice/Phy/State/RxOk ns3::WifiMacHeader (DATA ToDS=0, FromDS=0, MoreFrag=0, Retry=0, MoreData=0 Duration/ID=60us, DA=00:00:00:00:00:2f, SA=00:00:00:00:00:26, BSSID=00:00:00:00:00:26, FragNumber=0, SeqNumber=0) ns3::LlcSnapHeader (type 0x806) ns3::ArpHeader (reply source mac: 00-06-00:00:00:00:00:26 source ipv4: 10.0.0.38 dest mac: 00-06-00:00:00:00:00:2f dest ipv4: 10.0.0.47) ns3::WifiMacTrailer ()
r 0.00058803 OfdmRate6Mbps/NodeList/49/DeviceList/0/$ns3::WifiNetDevice/Phy/State/RxOk ns3::WifiMacHeader (DATA ToDS=0, FromDS=0, MoreFrag=0, Retry=0, MoreData=0 Duration/ID=60us, DA=00:00:00:00:00:2f, SA=00:00:00:00:00:26, BSSID=00:00:00:00:00:26, FragNumber=0, SeqNumber=0) ns3::LlcSnapHeader (type 0x806) ns3::ArpHeader (reply source mac: 00-06-00:00:00:00:00:26 source ipv4: 10.0.0.38 dest mac: 00-06-00:00:00:00:00:2f dest ipv4: 10.0.0.47) ns3::WifiMacTrailer ()
r 0.00058803 OfdmRate6Mbps/NodeList/56/DeviceList/0/$ns3::WifiNetDevice/Phy/State/RxOk ns3::WifiMacHeader (DATA ToDS=0, FromDS=0, MoreFrag=0, Retry=0, MoreData=0 Duration/ID=60us, DA=00:00:00:00:00:2f, SA=00:00:00:00:00:26, BSSID=00:00:00:00:00:26, FragNumber=0, SeqNumber=0) ns3::LlcSnapHeader (type 0x806) ns3::ArpHeader (reply source mac: 00-06-00:00:00:00:00:26 source ipv4: 10.0.0.38 dest mac: 00-06-00:00:00:00:00:2f dest ipv4: 10.0.0.47) ns3::WifiMacTrailer ()
r 0.00058803 OfdmRate6Mbps/NodeList/58/DeviceList/0/$ns3::WifiNetDevice/Phy/State/RxOk ns3::WifiMacHeader (DATA ToDS=0, FromDS=0, MoreFrag=0, Retry=0, MoreData=0 Duration/ID=60us, DA=00:00:00:00:00:2f, SA=00:00:00:00:00:26, BSSID=00:00:00:00:00:26, FragNumber=0, SeqNumber=0) ns3::LlcSnapHeader (type 0x806) ns3::ArpHeader (reply source mac: 00-06-00:00:00:00:00:26 source ipv4: 10.0.0.38 dest mac: 00-06-00:00:00:00:00:2f dest ipv4: 10.0.0.47) ns3::WifiMacTrailer ()
r 0.00058809 OfdmRate6Mbps/NodeList/15/DeviceList/0/$ns3::WifiNetDevice/Phy/State/RxOk ns3::WifiMacHeader (DATA ToDS=0, FromDS=0, MoreFrag=0, Retry=0, MoreData=0 Duration/ID=60us, DA=00:00:00:00:00:2f, SA=00:00:00:00:00:26, BSSID=00:00:00:00:00:26, FragNumber=0, SeqNumber=0) ns3::LlcSnapHeader (type 0x806) ns3::ArpHeader (reply source mac: 00-06-00:00:00:00:00:26 source ipv4: 10.0.0.38 dest mac: 00-06-00:00:00:00:00:2f dest ipv4: 10.0.0.47) ns3::WifiMacTrailer ()
r 0.00058809 OfdmRate6Mbps/NodeList/19/DeviceList/0/$ns3::WifiNetDevice/Phy/State/RxOk ns3::WifiMacHeader (DATA ToDS=0, FromDS=0, MoreFrag=0, Retry=0, MoreData=0 Duration/ID=60us, DA=00:00:00:00:00:2f, SA=00:00:00:00:00:26, BSSID=00:00:00:00:00:26, FragNumber=0, SeqNumber=0) ns3::LlcSnapHeader (type 0x806) ns3::ArpHeader (reply source mac: 00-06-00:00:00:00:00:26 source ipv4: 10.0.0.38 dest mac: 00-06-00:00:00:00:00:2f dest ipv4: 10.0.0.47) ns3::WifiMacTrailer ()
r 0.00058809 OfdmRate6Mbps/NodeList/55/DeviceList/0/$ns3::WifiNetDevice/Phy/State/RxOk ns3::WifiMacHeader (DATA ToDS=0, FromDS=0, MoreFrag=0, Retry=0, MoreData=0 Duration/ID=60us, DA=00:00:00:00:00:2f, SA=00:00:00:00:00:26, BSSID=00:00:00:00:00:26, FragNumber=0, SeqNumber=0) ns3::LlcSnapHeader (type 0x806) ns3::ArpHeader (reply source mac: 00-06-00:00:00:00:00:26 source ipv4: 10.0.0.38 dest mac: 00-06-00:00:00:00:00:2f dest ipv4: 10.0.0.47) ns3::WifiMacTrailer ()
r 0.00058809 OfdmRate6Mbps/NodeList/59/DeviceList/0/$ns3::WifiNetDevice/Phy/State/RxOk ns3::WifiMacHeader (DATA ToDS=0, FromDS=0, MoreFrag=0, Retry=0, MoreData=0 Duration/ID=60us, DA=00:00:00:00:00:2f, SA=00:00:00:00:00:26, BSSID=00:00:00:00:00:26, FragNumber=0, SeqNumber=0) ns3::LlcSnapHeader (type 0x806) ns3::ArpHeader (reply source mac: 00-06-00:00:00:00:00:26 source ipv4: 10.0.0.38 dest mac: 00-06-00:00:00:00:00:2f dest ipv4: 10.0.0.47) ns3::WifiMacTrailer ()
r 0.000588107 OfdmRate6Mbps/NodeList/7/DeviceList/0/$ns3::WifiNetDevice/Phy/State/RxOk ns3::WifiMacHeader (DATA ToDS=0, FromDS=0, MoreFrag=0, Retry=0, MoreData=0 Duration/ID=60us, DA=00:00:00:00:00:2f, SA=00:00:00:00:00:26, BSSID=00:00:00:00:00:26, FragNumber=0, SeqNumber=0) ns3::LlcSnapHeader (type 0x806) ns3::ArpHeader (reply source mac: 00-06-00:00:00:00:00:26 source ipv4: 10.0.0.38 dest mac: 00-06-00:00:00:00:00:2f dest ipv4: 10.0.0.47) ns3::WifiMacTrailer ()
r 0.000588107 OfdmRate6Mbps/NodeList/34/DeviceList/0/$ns3::WifiNetDevice/Phy/State/RxOk ns3::WifiMacHeader (DATA ToDS=0, FromDS=0, MoreFrag=0, Retry=0, MoreData=0 Duration/ID=60us, DA=00:00:00:00:00:2f, SA=00:00:00:00:00:26, BSSID=00:00:00:00:00:26, FragNumber=0, SeqNumber=0) ns3::LlcSnapHeader (type 0x806) ns3::ArpHeader (reply source mac: 00-06-00:00:00:00:00:26 source ipv4: 10.0.0.38 dest mac: 00-06-00:00:00:00:00:2f dest ipv4: 10.0.0.47) ns3::WifiMacTrailer ()
r 0.000588107 OfdmRate6Mbps/NodeList/67/DeviceList/0/$ns3::WifiNetDevice/Phy/State/RxOk ns3::WifiMacHeader (DATA ToDS=0, FromDS=0, MoreFrag=0, Retry=0, MoreData=0 Duration/ID=60us, DA=00:00:00:00:00:2f, SA=00:00:00:00:00:26, BSSID=00:00:00:00:00:26, FragNumber=0, SeqNumber=0) ns3::LlcSnapHeader (type 0x806) ns3::ArpHeader (reply source mac: 00-06-00:00:00:00:00:26 source ipv4: 10.0.0.38 dest mac: 00-06-00:00:00:00:00:2f dest ipv4: 10.0.0.47) ns3::WifiMacTrailer ()
r 0.000588123 OfdmRate6Mbps/NodeList/6/DeviceList/0/$ns3::WifiNetDevice/Phy/State/RxOk ns3::WifiMacHeader (DATA ToDS=0, FromDS=0, MoreFrag=0, Retry=0, MoreData=0 Duration/ID=60us, DA=00:00:00:00:00:2f, SA=00:00:00:00:00:26, BSSID=00:00:00:00:00:26, FragNumber=0, SeqNumber=0) ns3::LlcSnapHeader (type 0x806) ns3::ArpHeader (reply source mac: 00-06-00:00:00:00:00:26 source ipv4: 10.0.0.38 dest mac: 00-06-00:00:00:00:00:2f dest ipv4: 10.0.0.47) ns3::WifiMacTrailer ()